LAMMPS data file via write_data, version 29 Aug 2024, timestep = 1016, units = metal

108 atoms
1 atom types

-0.07500682183544823 12.075006821835451 xlo xhi
-0.07500682183544823 12.075006821835451 ylo yhi
-0.07500682183544823 12.075006821835451 zlo zhi

Masses

1 26.982

Atoms # atomic

38 1 1.8781968778037212 2.021105301808187 4.0894380417682665 0 0 0
74 1 1.7646905481718624 1.8919812800534057 7.985311217379142 0 0 0
15 1 1.9003913701710051 3.8775708286056676 1.9284282158913602 0 0 0
50 1 2.024875886408332 5.897178427452177 4.035101783867317 0 0 0
51 1 2.038809339833261 4.029597888965936 6.052011964170368 0 0 0
86 1 1.8411234901076103 6.26625649296951 8.057826128206766 0 0 0
27 1 1.9393597827493845 7.994095069543971 1.895450112578228 0 0 0
63 1 2.1851024811421573 7.950527349587345 6.0395242961653235 0 0 0
8 1 4.005375090177629 1.8457101528284048 2.098417863977937 0 0 0
42 1 6.035167426381689 2.024409516418886 4.059620612203988 0 0 0
44 1 3.9301476431792857 1.738786934919462 6.017005808712958 0 0 0
78 1 6.121061628574092 1.9821833330865413 7.932571227267098 0 0 0
19 1 5.891294145536798 3.830187884087957 1.9464337123593036 0 0 0
20 1 3.8306095815068444 6.038664846477346 2.0746362038113797 0 0 0
53 1 4.044000426723204 3.91021152961901 3.968007010288795 0 0 0
54 1 5.825408478624459 5.88141085123735 3.8886354438967623 0 0 0
55 1 5.846713751038042 3.8879432383106516 5.997251187464077 0 0 0
56 1 4.002631821974818 5.983950063493931 6.027587911107153 0 0 0
89 1 4.118354398352812 3.861526941487927 8.032426040418057 0 0 0
90 1 6.002145523704962 5.89917683576183 8.08754608937891 0 0 0
31 1 6.090526387445033 7.988308087999925 1.9253770231910325 0 0 0
65 1 3.999346417000871 8.05569360384737 4.053344109930798 0 0 0
67 1 5.8384792088086614 8.092598541609544 5.966741752981641 0 0 0
101 1 3.8816361482575723 8.083178550460651 7.988773141975225 0 0 0
12 1 7.875734975924537 1.8611135295836203 1.9656729999163782 0 0 0
48 1 8.12166458800774 2.0532621688224943 5.9333002603241045 0 0 0
24 1 8.04687801896678 6.021551679346618 1.9853759005098934 0 0 0
57 1 7.929903136951649 4.008615694558277 3.8759414061034145 0 0 0
60 1 8.0036095368105 5.808517957642561 5.872535641369338 0 0 0
93 1 8.01505150542023 4.0864512054218505 7.993968589215647 0 0 0
69 1 7.951854653668727 7.909934063558368 3.996998654562976 0 0 0
105 1 7.952081064488589 8.009883345641432 7.887915510742011 0 0 0
4 1 -0.0501607905740169 1.9119703571914404 1.8776874991433399 0 0 0
40 1 11.89386854966578 2.100247276623543 5.951016600897439 -1 0 0
16 1 -0.03777690762214192 6.1314541600782535 2.0138605573279573 0 0 0
49 1 -0.033988056051988735 4.0204548805694085 3.9410652294744146 0 0 0
52 1 0.1005020402861927 6.164355784574882 5.8493558743526055 0 0 0
85 1 0.02740006846053511 4.095465645131942 7.9664948388780905 0 0 0
61 1 0.13252966680175504 8.122175248596003 3.926337263722716 0 0 0
97 1 -0.029547487163650743 8.190356850234544 7.95593827065225 0 0 0
46 1 10.02390039906441 2.071422496912859 3.9829679328461025 0 0 0
82 1 9.993336932801865 2.076272050340597 8.008914022370716 0 0 0
23 1 10.111864311332 3.977211312344638 2.0535915030875986 0 0 0
58 1 10.089385280352431 6.062538865948253 4.0666850169745254 0 0 0
59 1 10.07194857287937 4.086275679388688 6.1267957257823324 0 0 0
94 1 10.13655558620269 6.080580367406961 8.017369043444159 0 0 0
35 1 10.058673004125247 8.07027790330987 2.0982882519219084 0 0 0
71 1 10.028800560384392 8.154608029253287 5.9077961812079485 0 0 0
3 1 1.9311317221028401 12.046099523428351 1.8513854487244839 0 -1 0
39 1 1.8153082857465015 12.065305379858529 5.952817374451198 0 -1 0
7 1 6.138221103416777 11.92220970399255 2.0209592292656513 0 -1 0
41 1 4.0431200250403645 12.035591214456408 4.073523406988986 0 -1 0
43 1 6.051710634688586 11.97612009103626 5.873161028451212 0 -1 0
77 1 3.903500837066008 -0.015389345515311348 8.140994912632586 0 0 0
45 1 8.16280335495095 11.990167876665012 3.9695441520340315 0 -1 0
81 1 8.024790291716092 12.070172717469905 8.026128319865201 0 -1 0
62 1 2.200740522906891 10.042402043854425 3.9814027788434037 0 0 0
98 1 1.8877658372755695 10.181154319619887 7.969388564610917 0 0 0
32 1 4.1284011540335355 9.945300165708344 1.8875256573079848 0 0 0
66 1 6.11050126289259 9.879619015808496 3.994318109815683 0 0 0
68 1 4.091228518243701 10.24926992934771 6.2092306504919925 0 0 0
102 1 6.047553467299098 10.025256858473439 8.02347638916557 0 0 0
36 1 7.973227672007324 9.920398955939463 1.9348405249162675 0 0 0
72 1 8.145581390819626 10.067419895843749 5.908264024075014 0 0 0
37 1 12.058039829947747 0.07813322120085608 3.861509362430244 -1 0 0
73 1 11.929372190993245 0.005320930062188367 7.941177531655445 -1 0 0
11 1 10.057559412777792 0.030618496025958564 1.9621413505861278 0 0 0
47 1 10.006422360910154 0.041661682746028106 6.105131388141685 0 0 0
28 1 -0.06335471625169475 10.096787459244803 2.197946303105745 0 0 0
64 1 12.058594246555337 10.031884003997508 5.847819763756297 -1 0 0
70 1 10.054418851519113 10.092159655229885 3.8622374226620706 0 0 0
106 1 10.033405066168037 9.932021068966828 8.009632635027216 0 0 0
2 1 1.9343512324436563 1.968338463345797 -0.05433658135806141 0 0 0
14 1 1.9641449156104913 5.981675050835749 11.990146168584548 0 0 -1
6 1 5.85539919833633 1.763547865682497 -0.016100300720427896 0 0 0
17 1 3.966680415965374 3.92995380974304 12.069241008302042 0 0 -1
18 1 6.07508370632257 5.926918134399366 12.038258898880265 0 0 -1
29 1 4.088712775219175 7.8938223896025566 -0.03977556153323114 0 0 0
21 1 7.98704319177541 3.843469013772736 12.057426519760831 0 0 -1
33 1 8.003692789609302 8.003943107869416 12.03783478498749 0 0 -1
87 1 1.872529732178426 3.916477401853869 10.00902252032013 0 0 0
99 1 2.0444733484972293 8.130229849134684 10.184579790349472 0 0 0
80 1 3.938426081119819 1.8784599851268602 10.026601810605747 0 0 0
91 1 6.082363128296316 3.786937466245183 10.09263605548016 0 0 0
92 1 3.979822828335328 5.9118711295416935 9.954518771565652 0 0 0
103 1 6.018941257824005 8.178688078141523 10.020544476994845 0 0 0
84 1 8.11733145464358 1.928500846655217 10.133937097962153 0 0 0
96 1 7.968021681757508 6.062145082389174 9.948741935214494 0 0 0
13 1 12.020410341003927 4.061032390823785 -0.03990643742386091 -1 0 0
25 1 12.027960777924056 8.076466855302815 11.993076688157647 -1 0 -1
10 1 9.994524647626701 1.947040986858675 0.013005070318635958 0 0 0
22 1 10.079005502175761 5.987135457244027 0.0823148281845878 0 0 0
76 1 -0.0527209591322535 2.0076719156404126 9.952441287897049 0 0 0
88 1 -0.05811906316484716 5.996101675356319 10.100845103748911 0 0 0
95 1 10.107075107368546 4.084942708204866 10.118983358917236 0 0 0
107 1 9.970798459771727 7.926503125024703 10.079420183354266 0 0 0
5 1 3.9354117263484683 11.967477038013147 0.08120876500747798 0 -1 0
9 1 7.914505379128433 12.015814888369805 12.010804827908862 0 -1 -1
26 1 1.8152645926370454 10.090998777656175 -0.01641345606990008 0 0 0
30 1 6.073959579273396 10.04541555003012 11.975807573160845 0 0 -1
75 1 1.8402946050080013 -0.03243427554194156 10.148097778010207 0 0 0
79 1 6.003905499436065 0.007885272238913998 9.95462913390224 0 0 0
104 1 3.9791080150907865 10.134875045950091 10.041016586908315 0 0 0
108 1 8.095285332756301 9.920925659463167 10.068431572669748 0 0 0
1 1 11.905052486966929 11.994604749517684 12.050133853840647 -1 -1 -1
34 1 10.035602422723583 9.936911488424103 0.018340425487240353 0 0 0
83 1 9.960974838774517 12.044789208731771 9.952658933432657 0 -1 0
100 1 12.065385828785853 10.163969709015708 9.953891279592497 -1 0 0

Velocities

38 -3.477571204854475 2.9902928985375694 -0.9271690958754926
74 -0.9807279915122171 -0.6644868056802479 -1.1028451777829578
15 -3.9117518146057555 1.7912583280717245 -4.481813899624715
50 4.886671701475954 0.34433015068517836 2.161408635224912
51 -0.6975941230019183 0.7793528131629192 -2.8236852004881934
86 -2.7001730930738366 -5.9639412261260185 2.2287555374587025
27 -1.842222078177219 0.6675460169731898 1.2081285900395935
63 0.2388101910514348 -1.4268294140116302 3.495836261738246
8 0.845674629236423 -3.219818943318491 -0.6885636437947656
42 0.6104982922886435 7.356083389291242 -7.289903705446372
44 -1.714704528232577 1.7830313995484894 2.851568236918735
78 1.4456143340108027 -0.032655633817471885 4.104767758739016
19 -3.1205522602069613 -1.1879752587377568 -2.1428056566003484
20 0.3303008844362431 -4.088641051571026 0.20383824930617067
53 5.259306059315326 -0.4650322443534272 3.0656641383753676
54 -0.8566990248014191 3.6405635902923406 -4.5069675800077045
55 -6.729490453404393 1.8552056589043195 1.6195430667367388
56 1.0118880660542289 -0.26504137384383525 4.843503082016319
89 -0.9927119909006378 2.084984585730087 -1.66770885702658
90 2.1809721564244926 4.539980431100016 -1.4157220299669406
31 0.033917336489983095 -5.49661887502166 0.8905102523762665
65 5.386310301669798 3.566200285453052 3.381174880045681
67 -2.684451812140615 7.419299562770247 -3.8053778897982107
101 3.3128805646304658 1.2093418295923422 -1.4739019704354555
12 -0.22385692955224523 -0.39415603614150463 1.5404063209368624
48 -0.052889622109283725 -2.5238888907782613 2.913162105701567
24 0.5169856956510034 4.207941550883965 -0.6084986008629519
57 -1.063424309238994 3.907822618558046 -0.44550924973523837
60 2.320745750822871 -1.4573731080453751 3.228012874440028
93 -0.9258533096385648 0.11015281553445659 2.8276840477431926
69 -1.6296836058132074 -3.5356748525815362 -2.340373480742258
105 -0.7914383012267127 1.9834706111434381 -1.640607397702777
4 -0.7914597772807995 0.5490839950253827 0.7908474151766027
40 -2.7381108843003057 -0.7865171258047882 -3.4434669831024314
16 1.3310597715425465 1.3910149247508576 1.5794681730237399
49 -4.250849403395076 -2.0769316492353753 0.7625956470529486
52 -4.450544855627948 1.1948705613761554 0.4396048555545758
85 2.902167279494399 -2.24307350304954 -1.3630325906718959
61 -0.4246664294466614 1.7675096772013166 -4.5053265636366
97 -3.709993161342346 -1.1758357123016678 -1.8769205204589838
46 -1.838065795522242 0.32096691806741867 -2.3891024672571137
82 -1.5420714684121348 1.578474939733904 1.4103218532412296
23 -1.2447164522134972 -2.054578913848102 -3.220017449312457
58 -1.285783083120227 0.2471013390644881 3.5134279327819207
59 1.8887961958969974 -2.7867670226235117 0.2339470796542679
94 -1.2290102626503672 -5.5076581883820515 -3.0838711905912284
35 -0.4752571228267388 3.948640363046586 2.4044112043578685
71 -1.0056037920476428 0.9577670089820489 -3.4460274708157406
3 -0.5773970693444127 -4.598975957999592 -3.0557254988392315
39 -1.2630530392597539 0.45847506353437134 5.48315353699182
7 0.5397990975102995 0.9311355288313249 -6.919349355008493
41 -0.9787428782412518 3.5330979012800725 4.458005353753212
43 2.4610507841611073 0.880254129272767 3.288298647777292
77 0.3721555603810656 -4.735856079761113 0.9759470520021011
45 -3.1808460515749397 2.090911784827194 4.238753941384923
81 -3.780908082597375 2.5954494263524674 2.473002264274931
62 -2.3643981234498415 -1.990249055020702 -1.3753995078033414
98 2.7270020184316617 -3.3304372253590633 -2.5913967337619668
32 -2.887431076795804 -2.332591166367801 3.2376025231730634
66 -0.10153782661200052 -3.046647036172278 3.921074777906116
68 -4.427726815915326 6.595645467461853 -3.1174785243287886
102 0.8606297702393076 1.037545969426831 0.8055534789599939
36 0.2058589950871426 -0.9967565176794225 1.2539250286992567
72 0.8300330879423047 1.4747643665869115 -0.9858313810283226
37 -1.706003191362651 -2.5390982612815316 3.2388700877973133
73 2.664454306580202 1.702745757485235 -3.1771262158825846
11 4.299814869120085 -0.4329776449096061 -0.6594486793511112
47 0.6719917590642526 0.5512667932077013 -1.0387495504618456
28 6.165915364418482 -3.6465600089988066 -4.48479092198592
64 -1.9505954950233533 -1.6745736145311265 0.33899464851334116
70 -0.8020569179623822 -5.793594732412642 0.4052372394032864
106 0.996684748200856 -0.10088433671822125 2.8552155192803363
2 -1.8460194988256684 4.246435542252725 6.474331946801937
14 -0.3165693906702276 -0.9856284373537747 3.7971441417669056
6 -0.3376823087618015 -0.5312796734590102 1.9090534378393624
17 6.062243865425357 -3.1977764802273607 -2.048828692009769
18 0.5486671339380577 0.6950273929109709 2.39148732974445
29 -1.3440021238234783 -2.19423987562186 -2.541164188186117
21 5.2326928232991845 0.59524156476774 0.7110228866133848
33 0.46872201808658526 -0.4027877175197326 1.2306483901967025
87 -2.0730364271198747 0.7196615313362659 -6.277923854520899
99 3.883917920827802 -0.6347809582998462 -1.937392874064833
80 -0.493323760907311 3.5470587953685064 -3.1814635457716594
91 -3.206393216852268 0.5163865624938901 0.5928131612103722
92 1.318452602244604 -4.476884489279832 1.7603658157333302
103 -2.942001346226463 3.062944056877121 2.5298056069863
84 5.45894768283922 -3.276436554975653 -1.634575436639117
96 -4.094931664887583 2.845934610505501 2.6729344787547533
13 -2.899852927535372 3.11876367826742 -3.462071860235461
25 4.115381437229443 -1.0261602056696755 -4.355117919287149
10 -1.6260383684789832 -3.4042073656942953 5.9084636860014195
22 7.12111307170178 -5.498440681595523 3.3215067269554557
76 5.591972818504708 -0.7384571526580487 1.5481053712568655
88 0.2233570486932006 -0.1841083447114273 1.8392567181874555
95 2.3439167144145423 0.4800243208618425 -3.7411522044917294
107 0.8294010396580922 -0.5517792362552901 -1.4605101577893895
5 -0.5314771698266053 -0.9121540450160939 1.393090121944252
9 4.475643639455292 4.995296629159484 -5.273393226619972
26 5.0052708848020755 2.554068152630884 -0.31345016668670594
30 0.4676222865684867 -5.48709195242328 1.8127003360921952
75 1.4656604939018922 -3.8735648498144126 -2.0499685273584087
79 -0.4092517584598607 -0.1724682677924524 2.7962044879361785
104 1.8129320711524795 1.670426517629435 -1.0804667935629564
108 -2.607287713183335 2.9566155721849525 -1.0031052570869137
1 -5.783683533094948 -2.0028164504003567 2.637086642960159
34 2.5299685921530486 -0.39676672534605506 -3.9456980857470896
83 -1.2475479522256747 6.911190487997427 0.08362978648847826
100 -1.0920536363551177 -0.4380627447797293 -1.6811072385010544
