LAMMPS data file via write_data, version 29 Aug 2024, timestep = 1015, units = metal

13500 atoms
1 atom types

-0.3750323182699813 60.37503231827 xlo xhi
-0.3750323182699813 60.37503231827 ylo yhi
-0.3750323182699813 60.37503231827 zlo zhi

Masses

1 26.982

Atoms # atomic

902 1 1.561050352041388 1.5354041506673468 3.58051617067466 0 0 0
1802 1 1.6424392707087712 1.62987649178426 7.858700606878193 0 0 0
63 1 1.5523705414631606 3.722225342928508 1.5831123806867033 0 0 0
962 1 1.411398308408436 5.6189980419802685 3.552513373102944 0 0 0
963 1 1.6752155881777786 3.438677442686697 5.785580489603368 0 0 0
1862 1 1.5357061716484812 5.528914094645048 7.646463353989306 0 0 0
123 1 1.5086439242926881 7.6701269750933 1.457537410693099 0 0 0
1023 1 1.6058396598938847 7.744969305400598 5.603545694349998 0 0 0
8 1 3.795917272954528 1.5208052276377098 1.716433636953924 0 0 0
906 1 5.482105633632994 1.6292984027888011 3.845286518644967 0 0 0
908 1 3.5378220841243775 1.657643540780679 5.773051701853931 0 0 0
1806 1 5.727734821205285 1.6425209650134223 7.837725426165784 0 0 0
67 1 5.673925777974316 3.6310259869563284 1.7045141099691292 0 0 0
68 1 3.6457836984322847 5.750020856583193 1.5996874936484784 0 0 0
965 1 3.620079718470735 3.633008220036133 3.6268899385453235 0 0 0
966 1 5.587185056461722 5.788116293540721 3.677720443196853 0 0 0
967 1 5.689642574084408 3.71332657178186 5.658595241466687 0 0 0
968 1 3.54226998746671 5.684914807075248 5.556168328191267 0 0 0
1865 1 3.805404156345109 3.6495443962594503 7.809335895067704 0 0 0
1866 1 5.71378058523925 5.736106000959719 7.743043973699591 0 0 0
127 1 5.87416624993613 7.833571600818554 1.595107650179133 0 0 0
1025 1 3.550802409434155 7.693176206692483 3.5508922949174586 0 0 0
1027 1 5.653054034054337 7.653935216764279 5.715813502906709 0 0 0
1925 1 3.6703362450191883 7.611637206680634 7.664180385674276 0 0 0
12 1 7.695744748357003 1.6974925801196175 1.6891025078688435 0 0 0
912 1 7.705118648547777 1.636229849027851 5.7345565490713435 0 0 0
72 1 7.706035447602405 5.788810006390157 1.7102936465553822 0 0 0
969 1 7.725096610060644 3.6986071027271685 3.7659373633164277 0 0 0
972 1 7.84471265980658 5.706099347655756 5.655375583880103 0 0 0
1869 1 7.712615623184879 3.5840607919001237 7.877992525903463 0 0 0
1029 1 7.8857881607413685 7.6749144790250705 3.6785582140391364 0 0 0
1929 1 7.726288456699584 7.695996234094696 7.6795326869903 0 0 0
910 1 9.815197561331862 1.8360588280981838 3.8735631736332636 0 0 0
1810 1 9.955070429478411 1.7449080735813371 7.704582104808994 0 0 0
71 1 9.664528713024604 3.5849728511923895 1.685422779731526 0 0 0
970 1 9.80807146109515 5.7052627769878 3.6792080429532894 0 0 0
971 1 9.80844952002064 3.757157337086335 5.807098238101603 0 0 0
1870 1 9.801516005553664 5.600137304597577 7.67371107547324 0 0 0
131 1 9.778522278656858 7.7233095318547225 1.4461861945631256 0 0 0
1031 1 9.77640236760395 7.75869477828584 5.727151122564632 0 0 0
16 1 11.739967128835607 1.7088447243305669 1.7179760929596175 0 0 0
914 1 13.74735117551617 1.7241629269884786 3.6394643126998387 0 0 0
916 1 11.863195084308048 1.693870087981524 5.691763306290627 0 0 0
1814 1 13.923533667385882 1.7334581354244494 7.817090811364759 0 0 0
75 1 13.874971111470657 3.529583619050949 1.7330392350567367 0 0 0
76 1 11.848210074824232 5.654105736155853 1.7069164606430447 0 0 0
973 1 11.934940187212263 3.729328792069102 3.7477345636710733 0 0 0
974 1 14.018088792139118 5.6797224355603335 3.7014485772055754 0 0 0
975 1 13.809112939670545 3.7252582587845935 5.655554308890892 0 0 0
976 1 11.8864195475623 5.762034691138315 5.699155956058244 0 0 0
1873 1 11.99658166481819 3.6892973364848847 8.00006130276857 0 0 0
1874 1 13.96788850300465 5.647544477993474 7.735711913734754 0 0 0
135 1 13.773353736230808 7.745928636459607 1.635379827171834 0 0 0
1033 1 11.813788174054205 7.643642984336602 3.5140868490664863 0 0 0
1035 1 13.805446151322046 7.62484991086924 5.608492915731655 0 0 0
1933 1 11.850884438841875 7.6682255730835935 7.686785015620426 0 0 0
20 1 15.887075885739668 1.674969888539911 1.5725059324628066 0 0 0
920 1 15.871688119590742 1.6536907431246552 5.670851993666177 0 0 0
80 1 15.77802044204278 5.614748913147549 1.473016323193069 0 0 0
977 1 15.874700870192138 3.7512983493313334 3.639005505397747 0 0 0
980 1 15.897585500792626 5.73398367293939 5.6721729201302225 0 0 0
1877 1 16.006700802356963 3.6656218720600195 7.572427221274501 0 0 0
1037 1 15.710120195278204 7.79671048068952 3.5352943846479965 0 0 0
1937 1 15.949958217209362 7.892412104498272 7.741405009167894 0 0 0
918 1 17.913240719405803 1.8581774618277636 3.5817257910114915 0 0 0
1818 1 18.030429749180946 1.6443190585361376 7.7044283770857405 0 0 0
79 1 17.918131386828666 3.719435458056134 1.5245026222610818 0 0 0
978 1 18.001413318634587 5.597027708483886 3.623436038616552 0 0 0
979 1 18.067801645555726 3.761004895000354 5.762921539033819 0 0 0
1878 1 17.91753832021195 5.770192603189464 7.635700168874414 0 0 0
139 1 17.672771550290943 7.771271879123412 1.628263423512088 0 0 0
1039 1 18.013246638249367 7.719814638305909 5.653544674186077 0 0 0
24 1 19.719561771780633 1.6796698609082712 1.4947979877694495 0 0 0
922 1 21.80121659181392 1.6494116391600737 3.704237330766838 0 0 0
924 1 19.886471920483217 1.6055094414280153 5.5330664974768045 0 0 0
1822 1 22.04236568596333 1.7786441126037171 7.758312124975397 0 0 0
83 1 22.06721293034398 3.6965270743268 1.710679818773792 0 0 0
84 1 19.805127575857487 5.77987792160129 1.4705838808285359 0 0 0
981 1 19.992554068355023 3.6843166810333092 3.5326366895601704 0 0 0
982 1 22.06520074557316 5.944849225043766 3.3629563617319564 0 0 0
983 1 21.947081747354545 3.741034983023743 5.732702992626172 0 0 0
984 1 20.11703715494988 5.850492791864392 5.532074538837271 0 0 0
1881 1 19.987999974245774 3.72503350692135 7.618684940851404 0 0 0
1882 1 21.98423779722629 5.754397379610757 7.661049615543285 0 0 0
143 1 21.87198848994657 7.7070701932455 1.5056713161921655 0 0 0
1041 1 19.79595629462201 7.680240818440257 3.5170440502463585 0 0 0
1043 1 21.72931481660967 7.936919495353279 5.559880189792941 0 0 0
1941 1 20.205730750008108 7.716467887153027 7.5880363372416335 0 0 0
28 1 23.89046140809456 1.6235657862733008 1.7287155391556903 0 0 0
928 1 23.806548092007183 1.85651582875787 5.577614878914377 0 0 0
88 1 23.989063629059036 5.763313594899294 1.4825795099673007 0 0 0
985 1 23.949967599232643 3.8680393982574985 3.5029295533707914 0 0 0
988 1 23.761368886901415 6.020967136210945 5.6387079283937735 0 0 0
1885 1 24.1666094084623 3.8237170462568892 7.702704184657708 0 0 0
1045 1 23.91814998481185 7.89762869389278 3.6659233315110176 0 0 0
1945 1 23.918298149559735 7.933756280339956 7.8102256917466955 0 0 0
926 1 25.920559101938963 1.695432325983526 3.6176275723305515 0 0 0
1826 1 25.986846043806725 1.7617363299378945 7.5438457874951865 0 0 0
87 1 25.9346967910349 3.659423586416923 1.6976134518810215 0 0 0
986 1 26.140071234321855 5.915798153012512 3.470893998995544 0 0 0
987 1 25.820854683444622 3.9956758339281753 5.673598353698388 0 0 0
1886 1 25.86968665635104 5.773075231962958 7.678447602921661 0 0 0
147 1 26.00459287868348 7.723995426742299 1.4377351705556238 0 0 0
1047 1 25.88674121952403 7.756684557047486 5.758171829728219 0 0 0
32 1 28.107130255456518 1.6842833004543232 1.8118728947171183 0 0 0
930 1 30.00151532064287 1.661396677077579 3.7604744283832368 0 0 0
932 1 27.952914025869 1.6718627693394799 5.709117191208934 0 0 0
1830 1 29.955948138454747 1.722637277072339 7.594181866966275 0 0 0
91 1 30.042293162983995 3.709913388315998 1.66422043086783 0 0 0
92 1 28.104191708340817 5.608885056423986 1.5401762177903047 0 0 0
989 1 28.134414321946004 3.64463390826373 3.7297622096475744 0 0 0
990 1 29.962277214329635 5.662171154581405 3.703040275828329 0 0 0
991 1 29.89698473312173 3.7209142777201434 5.760856375872626 0 0 0
992 1 27.98870357680829 5.7771805427373835 5.682894146800265 0 0 0
1889 1 28.004394341005185 3.719120579039256 7.8090797536347365 0 0 0
1890 1 30.021732956333764 5.738314604617153 7.866057783353635 0 0 0
151 1 30.016548936716454 7.775747314331696 1.6332200667161911 0 0 0
1049 1 28.10917797721828 7.788451395724475 3.5811599779241825 0 0 0
1051 1 29.884343494725417 7.977115733414872 5.759850776997532 0 0 0
1949 1 28.03700884295126 7.784322164989042 7.770259670149317 0 0 0
36 1 31.9425428902418 1.6867110517060657 1.6612440469879268 0 0 0
936 1 32.01672339573482 1.5261865764653426 5.7034902945634505 0 0 0
96 1 32.078573102314515 5.691786604555077 1.5287375998844586 0 0 0
993 1 32.14284751007856 3.7090766841358644 3.9494370953177795 0 0 0
996 1 32.0631708604807 5.786380278849836 5.886830976971877 0 0 0
1893 1 31.90964793985269 3.7429316952068743 7.744579184965947 0 0 0
1053 1 32.13170441496478 7.815216913689383 3.862993275643044 0 0 0
1953 1 32.137488857256805 7.738377805635072 7.678980919883736 0 0 0
934 1 34.00427888172456 1.6725965981601578 3.819350065921696 0 0 0
1834 1 33.88650671585113 1.5853596223676087 7.8417191157304424 0 0 0
95 1 34.031385583994215 3.662335450072028 1.531913080299468 0 0 0
994 1 34.00925959536017 5.698676549800387 3.79890029565153 0 0 0
995 1 34.08939208485838 3.6285024075284764 5.7998200717321335 0 0 0
1894 1 34.29439244133862 5.524874560105998 7.713586602907046 0 0 0
155 1 33.93847280802197 7.690247510971274 1.5914805000233117 0 0 0
1055 1 34.03021540378221 7.757475278589292 6.003801336674356 0 0 0
40 1 36.04383439806019 1.6035644293986295 1.6427727492117496 0 0 0
938 1 38.1631189500069 1.587484750064921 3.474552531225727 0 0 0
940 1 36.19146648263525 1.5449319241435782 5.5795421216019605 0 0 0
1838 1 38.128737554014485 1.6350413639365908 7.7589536019699725 0 0 0
99 1 38.1793557306749 3.5376938033365777 1.6336631098423986 0 0 0
100 1 36.1328714367959 5.708900648236892 1.7171306767143695 0 0 0
997 1 36.16071015879188 3.7299063789760933 3.583041334241874 0 0 0
998 1 38.29198185772104 5.7034975796214145 3.7208184578695334 0 0 0
999 1 38.08906046397701 3.539374161091687 5.568487579743743 0 0 0
1000 1 36.04833453086207 5.549846803112976 5.567879524304271 0 0 0
1897 1 35.913310453493736 3.559344214311514 7.778687378679208 0 0 0
1898 1 38.03929511460593 5.649609872649701 7.705680117162033 0 0 0
159 1 38.24346389139701 7.699863081075971 1.7901658583888749 0 0 0
1057 1 36.20550083553145 7.584136030151719 3.8288688501050636 0 0 0
1059 1 38.13356065618277 7.639961957105796 5.667568754124902 0 0 0
1957 1 36.08944583739835 7.759355092922478 7.869817888260462 0 0 0
44 1 40.28117894744093 1.7847671411828396 1.4679161756345889 0 0 0
944 1 40.22802120026133 1.6495104702871384 5.463061959362494 0 0 0
104 1 40.22162556305042 5.638787704092892 1.5812359706184558 0 0 0
1001 1 40.15100293835872 3.620823560180804 3.576041034753936 0 0 0
1004 1 40.123394878428385 5.555392019282846 5.691238491323388 0 0 0
1901 1 40.16723867736439 3.501011278920461 7.6697521028548685 0 0 0
1061 1 40.26128010694648 7.57560354097002 3.8305506531890745 0 0 0
1961 1 40.09439731491209 7.456865120574824 7.776611490252562 0 0 0
942 1 42.34387998897008 1.6768557228506142 3.5449837004639195 0 0 0
1842 1 42.2065075555933 1.6116868922152188 7.7603917813577725 0 0 0
103 1 42.3806434951502 3.736874047724914 1.5494095619513388 0 0 0
1002 1 42.167512555456135 5.631940666003667 3.701800537724577 0 0 0
1003 1 42.107775059546505 3.7124409433697836 5.65433557002283 0 0 0
1902 1 42.32728293613535 5.7074993814598844 7.75507457450157 0 0 0
163 1 42.00293971943383 7.6643709632046155 1.613568344133655 0 0 0
1063 1 42.161601289619604 7.553088359036111 5.747856196872687 0 0 0
48 1 44.29232201528667 1.6542977240757155 1.741651560745634 0 0 0
946 1 46.43764002120146 1.6493125039066536 3.687842143207762 0 0 0
948 1 44.20713152951918 1.7772432272346033 5.676381492790094 0 0 0
1846 1 46.11301928430702 1.6918639068558552 7.725572533266292 0 0 0
107 1 46.381071004162465 3.633023476609588 1.4541858079270482 0 0 0
108 1 44.19149907683465 5.748520171129465 1.7136539808771991 0 0 0
1005 1 44.24990810826289 3.6726349614169784 3.691572026476067 0 0 0
1006 1 46.372320454556025 5.720752382868329 3.5457506937915277 0 0 0
1007 1 46.24365843763481 3.5849883072545885 5.730908113867156 0 0 0
1008 1 44.1276430873982 5.518775271877594 5.581022803958157 0 0 0
1905 1 44.289674466441426 3.6630536271067253 7.837327998553679 0 0 0
1906 1 46.1832419921661 5.615845613776 7.586561120202958 0 0 0
167 1 46.35907291481791 7.7822685532801925 1.6706031777307035 0 0 0
1065 1 44.11676244490803 7.7211268020859976 3.662183848786085 0 0 0
1067 1 46.163374126015874 7.703421506190642 5.648557812067307 0 0 0
1965 1 44.260693421053816 7.751258128105909 7.683099340683601 0 0 0
52 1 48.2751770754986 1.5144510536600981 1.6522535477679725 0 0 0
952 1 48.30946838556734 1.5257669946692043 5.810601982556657 0 0 0
112 1 48.41379005760916 5.657060481607906 1.7134894673110237 0 0 0
1009 1 48.16052546699102 3.7114019915187253 3.573650969413199 0 0 0
1012 1 48.32273613882502 5.609386117985695 5.8463838155971235 0 0 0
1909 1 48.345216207091696 3.601570542942768 7.900709268067861 0 0 0
1069 1 48.16885068303967 7.723605209876076 3.6735298125674234 0 0 0
1969 1 48.395946600813815 7.771711687789061 7.781068503137327 0 0 0
950 1 50.216178875055725 1.7715022041153632 3.771955799691588 0 0 0
1850 1 50.27303436910435 1.7620581096361179 7.806079498829085 0 0 0
111 1 50.18814296647017 3.63112989960395 1.5505095414101167 0 0 0
1010 1 50.27110650688184 5.53014733943502 3.6714927310485512 0 0 0
1011 1 50.27494510275565 3.63362569137104 5.788298443546171 0 0 0
1910 1 50.25506435871606 5.759343355278673 7.757844023374657 0 0 0
171 1 50.26444025604401 7.770060728919604 1.6644385777875434 0 0 0
1071 1 50.24894845607734 7.5499239581993765 5.397322880738693 0 0 0
56 1 52.38623601530266 1.5655568578599783 1.729629592080001 0 0 0
954 1 54.306939563525496 1.597672972797229 3.642540551266825 0 0 0
956 1 52.31428443977908 1.605462694262511 5.899326894584808 0 0 0
1854 1 54.35145231180428 1.443250568177519 7.795275822544908 0 0 0
115 1 54.26521790787098 3.6717930982084312 1.6988074780596116 0 0 0
116 1 52.33076830768491 5.5812966544286455 1.6215109511888188 0 0 0
1013 1 52.315568257225834 3.5383771965503525 3.614416096842472 0 0 0
1014 1 54.289459429840726 5.5985343089406605 3.875002378234446 0 0 0
1015 1 54.4356045546373 3.5690117088149926 5.615613138748109 0 0 0
1016 1 52.25638087032474 5.754481184384794 5.654251940670644 0 0 0
1913 1 52.463870665640925 3.7045789924093375 7.5383995422101275 0 0 0
1914 1 54.432891561566315 5.627699545282805 7.6858220558671535 0 0 0
175 1 54.36576513370602 7.69331367009356 1.5355321123398724 0 0 0
1073 1 52.29882442872753 7.642411880508469 3.612268672839595 0 0 0
1075 1 54.3363851597584 7.880602725821504 5.697902233281162 0 0 0
1973 1 52.19142424632625 7.725213796061499 7.679741941071794 0 0 0
60 1 56.29537905582689 1.5209286861388003 1.5264081987974207 0 0 0
960 1 56.45204328632899 1.5639655262285994 5.644617600945246 0 0 0
120 1 56.15927287723844 5.652653803376263 1.5416994110836617 0 0 0
1017 1 56.342842053137375 3.7033924536824014 3.727897263818395 0 0 0
1020 1 56.32498660562889 5.737792706429216 5.65590757877799 0 0 0
1917 1 56.50132046887925 3.6057711028725365 7.648884113680814 0 0 0
1077 1 56.244058498152896 7.60978532560693 3.639505173007717 0 0 0
1977 1 56.292732727739484 7.659811013452616 7.71717667874864 0 0 0
4 1 60.328699546052384 1.7871120625594086 1.6323540847060996 -1 0 0
904 1 60.311603016109494 1.6240531323161955 5.578399971440518 -1 0 0
64 1 60.142659238059 5.660127127698634 1.482942505081514 -1 0 0
961 1 -0.3741266467055979 3.6556784771759 3.8293406004480945 0 0 0
964 1 -0.24726582849504553 5.671584419717018 5.638846382114744 0 0 0
1861 1 -0.33192732941370906 3.710188074040196 7.845703219007607 0 0 0
1021 1 -0.37178058465951835 7.724334817589304 3.554012520641444 0 0 0
1921 1 60.32411846983536 7.783537940711354 7.653829518885884 -1 0 0
958 1 58.21621119676645 1.797886802009146 3.470653233724221 0 0 0
1858 1 58.31062674780304 1.4851988432171734 7.877132464717081 0 0 0
119 1 58.295564846565696 3.752570935161567 1.533885800271462 0 0 0
1018 1 58.474402053034105 5.722854980168572 3.517203960907432 0 0 0
1019 1 58.24170889553475 3.7857254415683346 5.6840811236496025 0 0 0
1918 1 58.448893013844064 5.6843433503524965 7.9357606225286395 0 0 0
179 1 58.43387859829941 7.690600943394542 1.507502928085406 0 0 0
1079 1 58.36647251323647 7.5752214731364225 5.672274990694858 0 0 0
1022 1 1.7464849769672723 9.807675190815756 3.655689108255284 0 0 0
1922 1 1.738699291193321 9.616053942029781 7.781236973202488 0 0 0
183 1 1.7650482884650742 11.845635183719539 1.8629100987320633 0 0 0
1082 1 1.7870839539379855 13.860910372810306 3.814954775794877 0 0 0
1083 1 1.6836547769268428 11.83292460131923 5.8461209049077985 0 0 0
1982 1 1.6265427629028026 13.6275148478874 7.764209061130673 0 0 0
243 1 1.58636047900601 15.81582447279537 1.5820972821315444 0 0 0
1143 1 1.8654560983832804 15.941644540653913 5.702948978711634 0 0 0
128 1 3.6664816829910123 9.711401628299072 1.5244612583950803 0 0 0
1026 1 5.7786038334919985 9.74456593644952 3.6522686824356576 0 0 0
1028 1 3.6940613597633623 9.720320660035377 5.676249548325346 0 0 0
1926 1 5.6254833377618985 9.741543552931958 7.701673702929245 0 0 0
187 1 5.6468504794117225 11.833428931362093 1.6318289698910542 0 0 0
188 1 3.718654861181275 13.898147830132013 1.6464652569724372 0 0 0
1085 1 3.612239587705088 11.739038156619564 3.7838248933591494 0 0 0
1086 1 5.825867635256235 13.622492475013699 3.7203879997903377 0 0 0
1087 1 5.716636546087009 11.800212527922685 5.718171780639673 0 0 0
1088 1 3.6679705415659756 13.820306481832652 5.673258820711104 0 0 0
1985 1 3.7346570978762847 11.763393636158614 7.74687195860284 0 0 0
1986 1 5.635723112579615 13.926399588996356 7.668316377817744 0 0 0
247 1 5.865146006400862 15.779793953629195 1.6739273523652787 0 0 0
1145 1 3.7489521288098233 15.883603625323316 3.508839860695033 0 0 0
1147 1 5.507563696094419 15.805818417456832 5.57623200855093 0 0 0
2045 1 3.712586652447059 15.762768907826498 7.929602300877706 0 0 0
132 1 7.8547359332925994 9.955347137863454 1.5480312702865409 0 0 0
1032 1 7.675839439924416 9.748513034668887 5.694572475173918 0 0 0
192 1 7.851550221131077 13.776020227020641 1.5772781203626458 0 0 0
1089 1 7.668291859825931 11.710766566372225 3.5751763272616093 0 0 0
1092 1 7.7599221441569615 13.779552065564591 5.858480453001494 0 0 0
1989 1 7.836222950777318 11.559097923341056 7.888554050498974 0 0 0
1149 1 7.774790730235076 15.793407691770627 3.6520296352059676 0 0 0
2049 1 7.846256000042422 15.823204624262024 7.691586235991734 0 0 0
1030 1 9.714188151941528 9.708606682792967 3.664119169031489 0 0 0
1930 1 9.859846817335065 9.856540243509201 7.730530459527351 0 0 0
191 1 9.921816584736266 11.822281198912853 1.593012780180195 0 0 0
1090 1 9.687439870471321 13.803552927075714 3.6305197134248144 0 0 0
1091 1 9.733063235060806 11.888200175315404 5.702142543187269 0 0 0
1990 1 9.900936565260823 13.943467948771755 7.754597910398741 0 0 0
251 1 9.785163381090541 15.917754964139169 1.61936046026757 0 0 0
1151 1 9.758843501517108 15.839933305825008 5.669382892466333 0 0 0
136 1 11.69387912465273 9.770770922383868 1.741524295209883 0 0 0
1034 1 13.819684959370807 9.86442725450284 3.660831826904086 0 0 0
1036 1 11.984562337810617 9.685145753606076 5.618454797124555 0 0 0
1934 1 13.919227911370836 9.668253154415961 7.771192414693573 0 0 0
195 1 13.766727615530526 11.889831751575839 1.5616603800451623 0 0 0
196 1 11.78322802965173 13.7816336076147 1.6796470207473388 0 0 0
1093 1 11.691887491714208 11.777442325428185 3.7139819069199795 0 0 0
1094 1 13.626938924795843 13.751882776538421 3.73406069515256 0 0 0
1095 1 13.839494317771761 11.831069242148262 5.712944176731042 0 0 0
1096 1 11.871168359027521 13.829537153851403 5.790484394014093 0 0 0
1993 1 11.842211906345044 11.80805917636794 7.587619628100453 0 0 0
1994 1 13.814971792588322 13.925147050879474 7.7511982859462565 0 0 0
255 1 13.919962868819697 15.688210502672241 1.6492138058094965 0 0 0
1153 1 11.756417276084717 15.88607482994229 3.7026302262488713 0 0 0
1155 1 13.976005298514185 15.761148948724813 5.775399586307654 0 0 0
2053 1 11.785275241522216 15.858925332241567 7.552309298712262 0 0 0
140 1 15.769643535669344 9.599151663700388 1.6215938618234473 0 0 0
1040 1 15.8590251049467 9.696174276557576 5.652782752607499 0 0 0
200 1 15.858538774741527 13.762700259075661 1.5182802270829365 0 0 0
1097 1 15.89565606131108 11.800671201047214 3.592697518091994 0 0 0
1100 1 15.833097940255856 13.682215307818632 5.627004809512331 0 0 0
1997 1 15.939314794525973 11.908173439375163 7.758387835816089 0 0 0
1157 1 15.86933011224999 15.576119295447517 3.624736703554698 0 0 0
2057 1 15.977102668288092 15.859508508208636 7.63078574815109 0 0 0
1038 1 17.776238166591767 9.787454439519571 3.556790420946484 0 0 0
1938 1 18.01660212229541 9.648307576567271 7.717122517078498 0 0 0
199 1 17.90126922935542 11.85845679217729 1.4973069156234244 0 0 0
1098 1 17.858305659947575 13.793042756862858 3.7147079428158403 0 0 0
1099 1 17.689472072220575 11.654762440551572 5.641571989944667 0 0 0
1998 1 17.851877079674882 13.753377336641565 7.635248460722137 0 0 0
259 1 17.779948166423225 15.86046975846331 1.5897052105384375 0 0 0
1159 1 17.885597115793185 15.801484829912102 5.699886656585467 0 0 0
144 1 19.853024666566206 9.836358260953325 1.6318973609416743 0 0 0
1042 1 21.71826148724493 9.847736119981976 3.557116071734605 0 0 0
1044 1 19.785911670037546 9.86060875588055 5.556578180739617 0 0 0
1942 1 21.978217908924396 9.770385368219753 7.724577200138507 0 0 0
203 1 21.838236063777206 11.72768721184496 1.5373177224682246 0 0 0
204 1 19.854261955188395 13.852880295106 1.4820385030487653 0 0 0
1101 1 19.823285685898526 11.919099318560233 3.7311538437787144 0 0 0
1102 1 21.815073362562767 13.673859873399968 3.6848562569839642 0 0 0
1103 1 22.032969081380447 11.685075852743587 5.688787029798003 0 0 0
1104 1 19.713701035804455 13.857352188838986 5.74586009475313 0 0 0
2001 1 19.78019501065996 11.77300585608109 7.679996210672624 0 0 0
2002 1 22.005066274677304 13.75036269160382 7.584781290485597 0 0 0
263 1 21.922339661697325 15.737345978956828 1.7013949262259962 0 0 0
1161 1 19.871883851616825 15.63384173499988 3.6243739871763916 0 0 0
1163 1 21.88292073416579 15.781406903086458 5.647100907436742 0 0 0
2061 1 20.01076712378492 15.842039747388382 7.68082508928902 0 0 0
148 1 23.986189710116424 9.820678726481958 1.5077956614819137 0 0 0
1048 1 23.994699736730045 9.744627108493317 5.68421562835261 0 0 0
208 1 23.853035519317633 13.686937625738459 1.5590928556631503 0 0 0
1105 1 23.97842913786078 11.763007892921413 3.7034154146414755 0 0 0
1108 1 23.88332980832362 13.959727341350966 5.592601692480093 0 0 0
2005 1 24.106639245091657 11.669189428033672 7.766826632148964 0 0 0
1165 1 23.871039858985686 15.850234560417029 3.606085189643894 0 0 0
2065 1 23.903111523543277 15.849834849148367 7.708213729380165 0 0 0
1046 1 26.060149138852644 9.724960784259013 3.5509151107824604 0 0 0
1946 1 26.01664473295541 9.74543353799523 7.615663926465347 0 0 0
207 1 26.072018314614326 11.784664365310768 1.5808436400271844 0 0 0
1106 1 25.94439460275387 13.93116941683811 3.733434119149872 0 0 0
1107 1 25.757415369969113 11.865690071435903 5.68103180689653 0 0 0
2006 1 25.963443874727357 13.81429238995253 7.66728946322202 0 0 0
267 1 25.922785827498313 15.92238214881159 1.5798505319694254 0 0 0
1167 1 25.87732977353934 15.872321439650257 5.608661055690282 0 0 0
152 1 27.899141518801013 9.812245338068387 1.5990504706013167 0 0 0
1050 1 29.931246872917434 9.753811551826866 3.655088560825579 0 0 0
1052 1 27.886449076389262 9.783102775239898 5.721298757586201 0 0 0
1950 1 30.049767322790956 9.899156162513389 7.6819549762972095 0 0 0
211 1 29.911263512779403 11.70038046370549 1.6988279948704892 0 0 0
212 1 27.999990118648647 13.805585112568389 1.6184301740332137 0 0 0
1109 1 27.992784194723157 11.960507773514358 3.6205194280902426 0 0 0
1110 1 29.945186375565445 14.046916572434194 3.6832602606947473 0 0 0
1111 1 30.010063681982633 11.773514998183787 5.5050168746709325 0 0 0
1112 1 28.027772145016986 13.845972451826729 5.842096166918179 0 0 0
2009 1 28.04626942007702 11.717441183694289 7.723580203507387 0 0 0
2010 1 30.007453750934307 13.86876016045772 7.713444920981652 0 0 0
271 1 29.885663635446424 15.863938428128618 1.501789168514228 0 0 0
1169 1 27.95940406513109 15.897023283756319 3.559457896531655 0 0 0
1171 1 30.048430068545635 15.799933557488384 5.702821630994673 0 0 0
2069 1 27.978975222102708 15.82902898888914 7.736362525934263 0 0 0
156 1 32.005799705590896 9.77207407917387 1.6574381815949006 0 0 0
1056 1 32.00962061129215 10.079910354388534 5.693714666402947 0 0 0
216 1 31.956765166938133 13.855503056335635 1.6736783072514785 0 0 0
1113 1 32.09078211250722 11.842001847876272 3.6506859659966606 0 0 0
1116 1 32.21245932827313 13.800319950100308 5.741507847580077 0 0 0
2013 1 31.960160411427214 11.901729913106173 7.7190912146856006 0 0 0
1173 1 32.055267650569206 15.945289274055124 3.697960368676124 0 0 0
2073 1 32.06725969993016 15.67529964439255 7.6764969226414115 0 0 0
1054 1 34.0010368016819 9.662443031985303 3.7477412749038246 0 0 0
1954 1 33.98716883239794 9.883541067041214 7.733056588435623 0 0 0
215 1 34.04970163002411 11.804836604954865 1.719413356859874 0 0 0
1114 1 34.21837866665335 13.724349433742843 3.6027484389645568 0 0 0
1115 1 34.17351871087125 11.681960431982844 5.711743266419707 0 0 0
2014 1 34.09459081282917 13.758307774475623 7.797811247132071 0 0 0
275 1 34.11394595799533 15.839241710020081 1.775068831802776 0 0 0
1175 1 34.06670249935335 15.838983787649541 5.76081222092494 0 0 0
160 1 36.01203198439483 9.643649059921445 1.7054705513420116 0 0 0
1058 1 38.084020117290954 9.667109647862887 3.7726289996245916 0 0 0
1060 1 36.16506737544583 9.652829465352147 5.848876903558182 0 0 0
1958 1 38.221689155396035 9.716055280140615 7.725280628740586 0 0 0
219 1 38.14848058748206 11.706505553972724 1.9755144427168625 0 0 0
220 1 36.17029193223374 13.658265776401743 1.697037191642233 0 0 0
1117 1 35.997465014904066 11.540038601177901 3.690051152054944 0 0 0
1118 1 38.07333994547488 13.749729558098766 3.7292641749712954 0 0 0
1119 1 38.202442649837096 11.837876963048942 5.764172190539034 0 0 0
1120 1 36.10382869224526 13.743608051249488 5.778402628769979 0 0 0
2017 1 36.17342068693526 11.765953912093659 7.8106561585819305 0 0 0
2018 1 38.199294789452715 13.892509136371546 7.86571234841259 0 0 0
279 1 38.05992089666776 15.766544289106513 1.6669699712555834 0 0 0
1177 1 36.05279372936005 15.88815407662918 3.5994007143884303 0 0 0
1179 1 38.10275437627807 15.694732541582512 5.710336981806739 0 0 0
2077 1 36.19272003200349 15.85325725169487 7.841877676781502 0 0 0
164 1 40.217156430130025 9.80783795823431 1.6846447115816146 0 0 0
1064 1 40.129003318399 9.751959595222793 5.864639288712577 0 0 0
224 1 40.10537238672564 13.739104234878091 1.6808697465001667 0 0 0
1121 1 40.161979066548156 11.733019011276792 3.8454207430562692 0 0 0
1124 1 40.31422356012915 13.669369686380273 5.789172047867772 0 0 0
2021 1 40.212927335105284 11.86273474870512 7.91572216816682 0 0 0
1181 1 40.11195074248398 15.73754317491875 3.6783086730804317 0 0 0
2081 1 40.22854673071607 15.906814249836525 7.715007061627373 0 0 0
1062 1 42.132656062389366 9.812831740871244 3.6371765387882076 0 0 0
1962 1 42.21365616198212 9.70178749801131 7.824339675740292 0 0 0
223 1 42.16665271383111 11.920456254705494 1.6518458255319248 0 0 0
1122 1 42.03112340441919 13.773034868678002 3.7032892334686647 0 0 0
1123 1 42.13833524251955 11.694903412896744 5.513925087593763 0 0 0
2022 1 42.12297955732777 13.808010138259128 7.854884270327562 0 0 0
283 1 42.26140379203559 15.87888877102354 1.7161383738738578 0 0 0
1183 1 42.11491004052713 15.85018635457199 5.711968308143479 0 0 0
168 1 44.02911026174081 9.680025131850222 1.69076194227689 0 0 0
1066 1 46.11406273843431 9.777057880202907 3.6451702629698737 0 0 0
1068 1 44.21140263453515 9.711746685107892 5.729157402953969 0 0 0
1966 1 46.291987304686124 9.733605925508199 7.650839095480369 0 0 0
227 1 46.44472825270838 11.631552174762449 1.6856704519100247 0 0 0
228 1 44.263860182243604 13.67851082561886 1.6319940483740618 0 0 0
1125 1 44.22196810114454 11.792037444533818 3.709106428937502 0 0 0
1126 1 46.19035878035789 13.80074575346968 3.5569028333109727 0 0 0
1127 1 46.17162572483604 11.876848811490149 5.844726837637468 0 0 0
1128 1 44.1195259265628 13.858026439062183 5.690019193120411 0 0 0
2025 1 44.02583763510778 11.831678887078281 7.697703166085449 0 0 0
2026 1 46.185576948038054 13.839119136694636 7.7888940908198325 0 0 0
287 1 46.45858902989184 15.800116464205846 1.625655318739811 0 0 0
1185 1 44.26026998730182 15.86270961513541 3.6143942647096363 0 0 0
1187 1 46.19449480287823 15.9894173540742 5.722973526074378 0 0 0
2085 1 44.112434729273275 15.72870405062955 7.813559938769745 0 0 0
172 1 48.376116745484566 9.720523169504634 1.7034754666254248 0 0 0
1072 1 47.97243596917423 9.713510543726935 5.715143659197006 0 0 0
232 1 48.28181726764911 13.697560217969084 1.7261031349657083 0 0 0
1129 1 48.13717956242451 11.815390403117648 3.9017499643979354 0 0 0
1132 1 48.27994742739876 13.863898656958433 5.804134710674112 0 0 0
2029 1 48.22264851843984 11.824448585562408 7.745682195787908 0 0 0
1189 1 48.300929714011055 15.760291547320504 3.6726809098130087 0 0 0
2089 1 48.30767566232092 15.879062981500823 7.773996754459856 0 0 0
1070 1 50.246211034506224 9.775479910015115 3.6552832529794212 0 0 0
1970 1 50.22292593620706 9.732055233625768 7.740431882155723 0 0 0
231 1 50.25899957741319 11.633631463851989 1.6664900525393578 0 0 0
1130 1 50.24114197052983 13.661463231592753 3.6924282900017267 0 0 0
1131 1 50.12309197404171 11.70432461707309 5.814536208388464 0 0 0
2030 1 50.40713088878011 13.797368234955657 7.8868803323300085 0 0 0
291 1 50.30560446958802 15.699352573504056 1.58636945151434 0 0 0